 Gaussian 09, Revision B.01,
 Gaussian 09:  EM64L-G09RevB.01 12-Aug-2010

 -----------------------
 #t opt=modredundant pm6
 -----------------------
 --------
 No Title
 --------
 Symbolic Z-matrix:
 Charge =  0 Multiplicity = 1

 SCF Done:  E(RPM6) = -0.104187732099     A.U. after   14 cycles
 SCF Done:  E(RPM6) = -0.159483303555     A.U. after   13 cycles
 SCF Done:  E(RPM6) = -0.169798133332     A.U. after   13 cycles
 SCF Done:  E(RPM6) = -0.176194340215     A.U. after   12 cycles
 SCF Done:  E(RPM6) = -0.179338588223     A.U. after   13 cycles
 SCF Done:  E(RPM6) = -0.179691083619     A.U. after   12 cycles
 SCF Done:  E(RPM6) = -0.179819598356     A.U. after   12 cycles
 SCF Done:  E(RPM6) = -0.179874942786     A.U. after   11 cycles
 SCF Done:  E(RPM6) = -0.179911532723     A.U. after   11 cycles
 SCF Done:  E(RPM6) = -0.179931039074     A.U. after   11 cycles
 SCF Done:  E(RPM6) = -0.179936541595     A.U. after   10 cycles
 SCF Done:  E(RPM6) = -0.179940601049     A.U. after   10 cycles
 SCF Done:  E(RPM6) = -0.179943009976     A.U. after    9 cycles
 SCF Done:  E(RPM6) = -0.179943718447     A.U. after    9 cycles
 SCF Done:  E(RPM6) = -0.179943926958     A.U. after    8 cycles
 Optimization completed.
    -- Stationary point found.

                         Standard orientation:
 ---------------------------------------------------------------------
 Center     Atomic      Atomic             Coordinates (Angstroms)
 Number     Number       Type             X           Y           Z
 ---------------------------------------------------------------------
      1          6           0       -2.500979   -0.320120   -0.255372
      2          8           0       -2.764821    0.742383   -0.797220
      3          6           0       -3.542404   -1.280557    0.250221
      4          1           0       -3.500736   -2.248042   -0.268012
      5          1           0       -3.452691   -1.471768    1.326937
      6          1           0       -4.548108   -0.863901    0.076186
      7          7           0       -1.185392   -0.750349   -0.084278
      8          1           0       -0.959684   -1.627954    0.403492
      9          6           0       -0.018235    0.060970   -0.520301
     10          1           0       -0.058511    0.187338   -1.635239
     11          6           0       -0.037107    1.468148    0.150966
     12          6           0        1.219066   -0.787849   -0.140534
     13          1           0       -1.060385    1.895345   -0.082865
     14          6           0        0.087550    1.378864    1.670725
     15          6           0        0.982744    2.428464   -0.461385
     16          8           0        1.102268   -1.897061    0.369760
     17          1           0        1.053775    0.969773    1.986295
     18          1           0       -0.016400    2.367082    2.133645
     19          1           0       -0.692679    0.738181    2.099463
     20          1           0        0.900355    2.464908   -1.554087
     21          1           0        0.801325    3.451057   -0.100646
     22          1           0        2.018520    2.190358   -0.193550
     23          7           0        2.469492   -0.271270   -0.433925
     24          1           0        2.600721    0.681635   -0.763855
     25          6           0        3.682538   -1.043600   -0.091091
     26          1           0        4.586410   -0.494485   -0.389741
     27          1           0        3.729383   -1.252599    0.993916
     28          1           0        3.671398   -2.024088   -0.604215
 ---------------------------------------------------------------------

 The electronic state is 1-A.
 Alpha  occ. eigenvalues --   -1.21047  -1.19061  -1.13161  -1.10811  -1.05107
 Alpha  occ. eigenvalues --   -0.97839  -0.94164  -0.90314  -0.87341  -0.78083
 Alpha  occ. eigenvalues --   -0.77106  -0.71640  -0.67239  -0.61784  -0.61312
 Alpha  occ. eigenvalues --   -0.60083  -0.58136  -0.57669  -0.56406  -0.55080
 Alpha  occ. eigenvalues --   -0.53033  -0.52393  -0.51315  -0.50586  -0.49919
 Alpha  occ. eigenvalues --   -0.49666  -0.48991  -0.48466  -0.45383  -0.45368
 Alpha  occ. eigenvalues --   -0.43666  -0.39054  -0.38041  -0.37045  -0.35924
 Alpha virt. eigenvalues --    0.03286   0.04665   0.04684   0.06607   0.10624
 Alpha virt. eigenvalues --    0.12728   0.12853   0.14238   0.15079   0.15405
 Alpha virt. eigenvalues --    0.16036   0.17055   0.18370   0.18580   0.19004

 Mulliken atomic charges:
              1
     1  C    0.650644
     2  O   -0.571564
     3  C   -0.614891
     4  H    0.192272
     5  H    0.188928
     6  H    0.202650
     7  N   -0.530745
     8  H    0.306168
     9  C   -0.052530
    10  H    0.163642
    11  C   -0.026582
    12  C    0.545174
    13  H    0.170154
    14  C   -0.490907
    15  C   -0.502410
    16  O   -0.568228
    17  H    0.152641
    18  H    0.155060
    19  H    0.160350
    20  H    0.156126
    21  H    0.166225
    22  H    0.142086
    23  N   -0.464104
    24  H    0.277212
    25  C   -0.273637
    26  H    0.144189
    27  H    0.157859
    28  H    0.164216
 Sum of Mulliken atomic charges =   0.00000

 Dipole moment (field-independent basis, Debye):
    X=              3.0695    Y=              0.5654    Z=              0.6859  Tot=              3.1956
 1\1\GINC-SUNRAY\FOpt\RPM6\ZDO\C8H16N2O2\ANDERSX\06-Sep-2012\0\\#t opt=
 modredundant pm6\\No Title\\0,1\C,-8.2302235806,-4.6328385319,-0.13223
 62512\O,-8.5287538834,-5.3338361715,0.8225447477\C,-8.5822944567,-4.96
 7379812,-1.5558785711\H,-9.245728019,-4.2168697897,-2.0063432781\H,-7.
 6976852196,-5.0628096597,-2.1979753963\H,-9.1151745436,-5.9318423589,-
 1.5902542947\N,-7.5496212041,-3.4259860112,0.0272222041\H,-7.265919004
 9,-2.8515228803,-0.7781100382\C,-7.1170029681,-2.9245700859,1.35840032
 58\H,-8.0258209898,-2.7428020596,1.9921882482\C,-6.1995827427,-3.96338
 37703,2.0727598609\C,-6.4131659115,-1.577573728,1.0654080148\H,-6.7878
 580867,-4.9319843152,2.0685472481\C,-4.9042685965,-4.208773384,1.30131

 Normal termination of Gaussian 09 at Thu Sep  6 10:25:57 2012.
